TITLE="This is a title"
VARIABLES="X" "Y" "Density"
Zone I=2, J=2, F=POINT
1 1 1
2 1 4
1 2 2
2 2 3

